
Running Job 1 of 1 BCL373_td.inp
qchem BCL373_td.inp_21020.0 /home/chem/mssmsg/qchemscratch/qchem21020/ 12
/csc/minerva/software/q-chem/bin/mpi/mpirun_qchem -machinefile /var/spool/torque/4/aux//1196994.hpcmg2 -np 12 /csc/minerva/software/q-chem/exe/qcprog.exe BCL373_td.inp_21020.0 /home/chem/mssmsg/qchemscratch/qchem21020/

Process 5 of 12 is on node486.cluster.local - thread support 0
Process 1 of 12 is on node486.cluster.local - thread support 0
Process 3 of 12 is on node486.cluster.local - thread support 0
Process 11 of 12 is on node486.cluster.local - thread support 0
Process 4 of 12 is on node486.cluster.local - thread support 0
initial socket setup ...start
initial socket setup ...done 
now start server 0 ... 
set process cleaner
set process cleaner
set process cleaner
set process cleaner
set process cleaner
                  Welcome to Q-Chem
     A Quantum Leap Into The Future Of Chemistry


 Q-Chem 4.2, Q-Chem, Inc., Pleasanton, CA (2014).

 Y. Shao,  Z. Gan,  E. Epifanovsky,  A. T. B. Gilbert,  M. Wormit,  
 J. Kussmann,  A. W. Lange,  A. Behn,  J. Deng,  X. Feng,  D. Ghosh,  
 M. Goldey,  P. R. Horn,  L. D. Jacobson,  I. Kaliman,  R. Z. Khaliullin,  
 T. Kus,  A. Landau,  J. Liu,  E. I. Proynov,  Y. M. Rhee,  R. M. Richard,  
 M. A. Rohrdanz,  R. P. Steele,  E. J. Sundstrom,  H. L. Woodcock III,  
 P. M. Zimmerman,  D. Zuev,  B. Albrecht,  E. Alguire,  B. Austin,  
 G. J. O. Beran,  Y. A. Bernard,  E. Berquist,  K. Brandhorst,  
 K. B. Bravaya,  S. T. Brown,  D. Casanova,  C.-M. Chang,  Y. Chen,  
 S. H. Chien,  K. D. Closser,  D. L. Crittenden,  M. Diedenhofen,  
 R. A. DiStasio Jr.,  H. Do,  A. D. Dutoi,  R. G. Edgar,  S. Fatehi,  
 L. Fusti-Molnar,  A. Ghysels,  A. Golubeva-Zadorozhnaya,  J. Gomes,  
 M. W. D. Hanson-Heine,  P. H. P. Harbach,  A. W. Hauser,  E. G. Hohenstein,  
 Z. C. Holden,  T.-C. Jagau,  H. Ji,  B. Kaduk,  K. Khistyaev,  Jaehoon Kim,  
 Jihan Kim,  R. A. King,  P. Klunzinger,  D. Kosenkov,  T. Kowalczyk,  
 C. M. Krauter,  K. U. Lao,  A. Laurent,  K. V. Lawler,  S. V. Levchenko,  
 C. Y. Lin,  F. Liu,  E. Livshits,  R. C. Lochan,  A. Luenser,  P. Manohar,  
 S. F. Manzer,  S.-P. Mao,  N. Mardirossian,  A. V. Marenich,  S. A. Maurer,  
 N. J. Mayhall,  C. M. Oana,  R. Olivares-Amaya,  D. P. O'Neill,  
 J. A. Parkhill,  T. M. Perrine,  R. Peverati,  P. A. Pieniazek,  A. Prociuk,  
 D. R. Rehn,  E. Rosta,  N. J. Russ,  N. Sergueev,  S. M. Sharada,  
 S. Sharma,  D. W. Small,  A. Sodt,  T. Stein,  D. Stuck,  Y.-C. Su,  
 A. J. W. Thom,  T. Tsuchimochi,  L. Vogt,  O. Vydrov,  T. Wang,  
 M. A. Watson,  J. Wenzel,  A. White,  C. F. Williams,  V. Vanovschi,  
 S. Yeganeh,  S. R. Yost,  Z.-Q. You,  I. Y. Zhang,  X. Zhang,  Y. Zhao,  
 B. R. Brooks,  G. K. L. Chan,  D. M. Chipman,  C. J. Cramer,  
 W. A. Goddard III,  M. S. Gordon,  W. J. Hehre,  A. Klamt,  
 H. F. Schaefer III,  M. W. Schmidt,  C. D. Sherrill,  D. G. Truhlar,  
 A. Warshel,  X. Xu,  A. Aspuru-Guzik,  R. Baer,  A. T. Bell,  N. A. Besley,  
 J.-D. Chai,  A. Dreuw,  B. D. Dunietz,  T. R. Furlani,  S. R. Gwaltney,  
 C.-P. Hsu,  Y. Jung,  J. Kong,  D. S. Lambrecht,  W. Liang,  C. Ochsenfeld,  
 V. A. Rassolov,  L. V. Slipchenko,  J. E. Subotnik,  T. Van Voorhis,  
 J. M. Herbert,  A. I. Krylov,  P. M. W. Gill,  M. Head-Gordon

 Contributors to earlier versions of Q-Chem not listed above: 
 R. D. Adamson,  J. Baker,  E. F. C. Byrd,  A. K. Chakraborty,  C.-L. Cheng,  
 H. Dachsel,  R. J. Doerksen,  G. Hawkins,  A. Heyden,  S. Hirata,  
 G. Kedziora,  F. J. Keil,  C. Kelley,  P. P. Korambath,  W. Kurlancheek,  
 A. M. Lee,  M. S. Lee,  D. Liotard,  I. Lotan,  P. E. Maslen,  N. Nair,  
 D. Neuhauser,  R. Olson,  B. Peters,  J. Ritchie,  N. E. Schultz,  
 N. Shenvi,  A. C. Simmonett,  K. S. Thanthiriwatte,  Q. Wu,  W. Zhang

 Q-Chem 4.2.0 for Intel X86 Linux

 Parts of Q-Chem use Armadillo 4.100.2 (Dirt Cruiser).
 http://arma.sourceforge.net/

 Q-Chem begins on Sat May 21 12:33:27 2016  

Host: node486
0

     Scratch files written to /home/chem/mssmsg/qchemscratch/qchem21020.0//
 May2514 8580_ilyak 4884   
 Parallel job on  12  processors
Processing $rem in /csc/minerva/software/q-chem/config/preferences.
 MEM_TOTAL  2000 
Warning: disabling incdft.Finally everything over in PARseQInput

--------------------------------------------------------------
User input:
--------------------------------------------------------------
$rem
mem_total               20000
mem_static              200
exchange                m062x
basis                   6-31G*
max_cis_cycles          512
symmetry                off
sym_ignore              true
RPA                     true
cis_n_roots             4
cis_singlets            true
cis_triplets            false
$end

$molecule
0 1
Mg       36.1890245449  118.7565545072  114.3368036937
C        33.7579885801  118.8096019821  116.7984048503
C        36.5560136621  122.1300104292  114.6888431981
C        38.5946393587  118.6531074007  111.9429415069
C        35.7216768072  115.3141027286  114.0062822469
N        35.2879896115  120.2431662138  115.6042556990
C        34.3521769859  120.0443953508  116.5879841090
C        34.1374194054  121.3135004318  117.3975235815
C        34.6988715841  122.3938857994  116.4383137575
C        35.5976142539  121.5655093139  115.5211833251
C        33.5966455339  123.1196886107  115.6433799043
C        34.9256904413  121.2416532496  118.7314731733
C        34.5669583829  122.3672548952  119.7252584292
C        33.2117068117  122.1207043298  120.3620865520
O        32.9853609081  121.2245076605  121.1504406819
O        32.2763311552  122.9942663644  119.9340145227
N        37.3897603155  120.1569061878  113.4688697962
C        37.4028481849  121.5030204537  113.7484933934
C        38.3961534446  122.1648078600  112.9379123332
C        38.9949684034  121.1711935713  112.1565024380
C        38.3394514081  119.9177530555  112.5100512503
C        38.6897298538  123.6372815263  113.0051753124
C        40.0815491479  121.3004176045  111.1585075175
O        40.6236170375  120.3128691381  110.6611165447
C        40.5473475677  122.6783581645  110.7096445322
N        37.0305787127  117.2069002202  113.1537503338
C        37.9913519159  117.4302333269  112.2211507891
C        38.3405388574  116.1557272155  111.4582017438
C        37.5609483394  115.0627696870  112.2382306617
C        36.6981279967  115.8810329312  113.1958989386
C        37.9488442539  116.2446814268  109.9718205190
C        38.4654886568  114.0507388169  112.9752775792
C        39.2233697764  113.1093812483  112.0308462769
N        35.0014553380  117.3437148695  115.1578961603
C        34.9050213986  115.9761291114  114.9467093910
C        33.9032047363  115.3953764534  115.8175597001
C        33.4059661488  116.4710064766  116.5520746042
C        34.1026057359  117.6283269352  116.1171302454
C        33.5109814913  113.9515818433  115.8999068742
C        32.4776132191  116.8647244643  117.6078150992
O        31.7127431247  116.1943405889  118.2806217166
C        32.6354536192  118.4310996521  117.7751842158
C        31.3296741658  119.1562773231  117.4642553507
O        30.8771631649  120.0796336768  118.1129296132
O        30.7444226762  118.6730148852  116.3526584782
C        29.5002293169  119.2858700385  115.9664409374
C        30.9338197051  122.7646559036  120.4179489100
H        30.3348438167  123.5671307452  119.9861741163
H        33.1475948700  113.5750974315  114.9345176863
H        34.3586604886  113.3184756923  116.1948872656
H        32.7160987297  113.8135705417  116.6376907760
H        36.8740378946  116.4354811066  109.8631654095
H        38.4878312162  117.0525192440  109.4652130442
H        38.1817712950  115.3048019699  109.4565066246
H        38.5258300727  124.1364031334  112.0434724002
H        38.0544474281  124.1382455670  113.7387242148
H        39.7283389306  123.8322546712  113.2976193958
H        32.9782854973  122.4019318845  115.0908475160
H        32.9432180611  123.6789519573  116.3232637639
H        34.0258783634  123.8218967397  114.9200568998
H        28.7632731850  119.1804027793  116.7667605750
H        29.6508388736  120.3465153741  115.7466981256
H        29.1804406663  118.7478641414  115.0738250642
H        38.5267636336  112.5225887262  111.4181714406
H        39.8864844187  113.6555604837  111.3488766734
H        39.8440894627  112.4054954508  112.5975702619
H        39.7165853326  123.2754604043  110.3162420208
H        40.9936786744  123.2410723067  111.5368949389
H        41.2972676358  122.5416550740  109.9276120203
H        35.3051853139  122.3732917866  120.5349051948
H        34.5840377665  123.3477660505  119.2392977122
H        39.1749537755  114.5995067189  113.6105010703
H        37.8471776224  113.4512565118  113.6562101623
H        34.7507282429  120.2784291486  119.2230383387
H        35.9996623135  121.2894272114  118.5086266717
H        35.5794061038  114.2409102063  113.9070835318
H        39.3712606560  118.6448431030  111.1883568290
H        36.6582494574  123.2063710806  114.7822236330
H        32.8711405049  118.6579104540  118.8202604124
H        36.9150304647  114.4952062766  111.5528051977
H        35.2873587578  123.1420787308  116.9836696697
H        39.4224082398  115.9791252801  111.5180058057
H        33.0768880029  121.4767031229  117.6160532014
H        30.5824070944  121.7884262353  120.0771901476
H        30.9135292064  122.8108886839  121.5098391306
$end
--------------------------------------------------------------
 ----------------------------------------------------------------
             Standard Nuclear Orientation (Angstroms)
    I     Atom           X                Y                Z
 ----------------------------------------------------------------
    1      Mg     36.1890245449   118.7565545072   114.3368036937
    2      C      33.7579885801   118.8096019821   116.7984048503
    3      C      36.5560136621   122.1300104292   114.6888431981
    4      C      38.5946393587   118.6531074007   111.9429415069
    5      C      35.7216768072   115.3141027286   114.0062822469
    6      N      35.2879896115   120.2431662138   115.6042556990
    7      C      34.3521769859   120.0443953508   116.5879841090
    8      C      34.1374194054   121.3135004318   117.3975235815
    9      C      34.6988715841   122.3938857994   116.4383137575
   10      C      35.5976142539   121.5655093139   115.5211833251
   11      C      33.5966455339   123.1196886107   115.6433799043
   12      C      34.9256904413   121.2416532496   118.7314731733
   13      C      34.5669583829   122.3672548952   119.7252584292
   14      C      33.2117068117   122.1207043298   120.3620865520
   15      O      32.9853609081   121.2245076605   121.1504406819
   16      O      32.2763311552   122.9942663644   119.9340145227
   17      N      37.3897603155   120.1569061878   113.4688697962
   18      C      37.4028481849   121.5030204537   113.7484933934
   19      C      38.3961534446   122.1648078600   112.9379123332
   20      C      38.9949684034   121.1711935713   112.1565024380
   21      C      38.3394514081   119.9177530555   112.5100512503
   22      C      38.6897298538   123.6372815263   113.0051753124
   23      C      40.0815491479   121.3004176045   111.1585075175
   24      O      40.6236170375   120.3128691381   110.6611165447
   25      C      40.5473475677   122.6783581645   110.7096445322
   26      N      37.0305787127   117.2069002202   113.1537503338
   27      C      37.9913519159   117.4302333269   112.2211507891
   28      C      38.3405388574   116.1557272155   111.4582017438
   29      C      37.5609483394   115.0627696870   112.2382306617
   30      C      36.6981279967   115.8810329312   113.1958989386
   31      C      37.9488442539   116.2446814268   109.9718205190
   32      C      38.4654886568   114.0507388169   112.9752775792
   33      C      39.2233697764   113.1093812483   112.0308462769
   34      N      35.0014553380   117.3437148695   115.1578961603
   35      C      34.9050213986   115.9761291114   114.9467093910
   36      C      33.9032047363   115.3953764534   115.8175597001
   37      C      33.4059661488   116.4710064766   116.5520746042
   38      C      34.1026057359   117.6283269352   116.1171302454
   39      C      33.5109814913   113.9515818433   115.8999068742
   40      C      32.4776132191   116.8647244643   117.6078150992
   41      O      31.7127431247   116.1943405889   118.2806217166
   42      C      32.6354536192   118.4310996521   117.7751842158
   43      C      31.3296741658   119.1562773231   117.4642553507
   44      O      30.8771631649   120.0796336768   118.1129296132
   45      O      30.7444226762   118.6730148852   116.3526584782
   46      C      29.5002293169   119.2858700385   115.9664409374
   47      C      30.9338197051   122.7646559036   120.4179489100
   48      H      30.3348438167   123.5671307452   119.9861741163
   49      H      33.1475948700   113.5750974315   114.9345176863
   50      H      34.3586604886   113.3184756923   116.1948872656
   51      H      32.7160987297   113.8135705417   116.6376907760
   52      H      36.8740378946   116.4354811066   109.8631654095
   53      H      38.4878312162   117.0525192440   109.4652130442
   54      H      38.1817712950   115.3048019699   109.4565066246
   55      H      38.5258300727   124.1364031334   112.0434724002
   56      H      38.0544474281   124.1382455670   113.7387242148
   57      H      39.7283389306   123.8322546712   113.2976193958
   58      H      32.9782854973   122.4019318845   115.0908475160
   59      H      32.9432180611   123.6789519573   116.3232637639
   60      H      34.0258783634   123.8218967397   114.9200568998
   61      H      28.7632731850   119.1804027793   116.7667605750
   62      H      29.6508388736   120.3465153741   115.7466981256
   63      H      29.1804406663   118.7478641414   115.0738250642
   64      H      38.5267636336   112.5225887262   111.4181714406
   65      H      39.8864844187   113.6555604837   111.3488766734
   66      H      39.8440894627   112.4054954508   112.5975702619
   67      H      39.7165853326   123.2754604043   110.3162420208
   68      H      40.9936786744   123.2410723067   111.5368949389
   69      H      41.2972676358   122.5416550740   109.9276120203
   70      H      35.3051853139   122.3732917866   120.5349051948
   71      H      34.5840377665   123.3477660505   119.2392977122
   72      H      39.1749537755   114.5995067189   113.6105010703
   73      H      37.8471776224   113.4512565118   113.6562101623
   74      H      34.7507282429   120.2784291486   119.2230383387
   75      H      35.9996623135   121.2894272114   118.5086266717
   76      H      35.5794061038   114.2409102063   113.9070835318
   77      H      39.3712606560   118.6448431030   111.1883568290
   78      H      36.6582494574   123.2063710806   114.7822236330
   79      H      32.8711405049   118.6579104540   118.8202604124
   80      H      36.9150304647   114.4952062766   111.5528051977
   81      H      35.2873587578   123.1420787308   116.9836696697
   82      H      39.4224082398   115.9791252801   111.5180058057
   83      H      33.0768880029   121.4767031229   117.6160532014
   84      H      30.5824070944   121.7884262353   120.0771901476
   85      H      30.9135292064   122.8108886839   121.5098391306
 ----------------------------------------------------------------
 Nuclear Repulsion Energy =  6159.1354484047 hartrees
 There are      171 alpha and      171 beta electrons
 Requested basis set is 6-31G(d)
 There are 265 shells and 785 basis functions

Total QAlloc Memory Limit  20000 MB
Mega-Array Size       196 MB
MEM_STATIC part       200 MB
 A cutoff of  1.0D-11 yielded  13619 shell pairs
 There are    133767 function pairs
 Smallest overlap matrix eigenvalue = 2.91E-04

  Scale SEOQF with 1.000000e-03/1.000000e-04/1.000000e-04

 Standard Electronic Orientation quadrupole field applied
 Nucleus-field energy     =     0.0000000148 hartrees
 Guess from superposition of atomic densities
 Warning:  Energy on first SCF cycle will be non-variational
 A restricted hybrid HF-DFT SCF calculation will be
 performed using Pulay DIIS extrapolation
 Exchange:     0.5400 Hartree-Fock + 1.0000 M062X
 SCF converges when DIIS error is below 1.0E-08
 ---------------------------------------
  Cycle       Energy         DIIS Error
 ---------------------------------------
    1               -nan      3.03E-02
    2   -2261.9075664914      9.03E-03
    3   -2263.8549487696      3.08E-03
    4   -2264.1012355192      2.36E-03
    5   -2264.4231936810      7.72E-04
    6   -2264.4652395673      1.73E-04
    7   -2264.4672817844      6.36E-05
    8   -2264.4675802323      3.09E-05
    9   -2264.4676630843      7.51E-06
   10   -2264.4676684590      3.63E-06
   11   -2264.4676699391      1.82E-06
   12   -2264.4676703251      7.97E-07
   13   -2264.4676704211      4.12E-07
   14   -2264.4676704494      1.84E-07
   15   -2264.4676704615      9.40E-08
   16   -2264.4676704628      4.44E-08
   17   -2264.4676704633      2.16E-08
   18   -2264.4676704666      9.38E-09 Convergence criterion met
 ---------------------------------------
 SCF time:  CPU 286.40 s  wall 408.73 s
 SCF   energy in the final basis set = -2264.4676704666
 Total energy in the final basis set = -2264.4676704666
OV_DIM:  Setting MaxSz  = 2048
OV_DIM:  Setting MaxSpc = 39
 Direct TDDFT/TDA calculation will be performed
 Exchange:     0.5400 Hartree-Fock + 1.0000 M062X
 Singlet excitation energies requested
 CIS energy converged when residual is below 10e- 6
 ---------------------------------------------------
 Iter    Rts Conv    Rts Left    Ttl Dev     Max Dev
 ---------------------------------------------------
   1         0           4      0.001196    0.000401
   2         0           4      0.000297    0.000110
   3         0           4      0.000124    0.000042
   4         0           4      0.000079    0.000050
   5         0           4      0.000093    0.000073
   6         0           4      0.000087    0.000070
   7         2           2      0.000102    0.000077
   8         2           2      0.000046    0.000039
   9         2           2      0.000027    0.000022
  10         2           2      0.000015    0.000009
  11         2           2      0.000022    0.000017
  12         2           2      0.000053    0.000050    Collapsing Subspace
  13         2           2      0.000021    0.000019
  14         2           2      0.000020    0.000018
  15         3           1      0.000015    0.000013
  16         3           1      0.000009    0.000008
  17         3           1      0.000006    0.000005
  18         3           1      0.000006    0.000005
  19         3           1      0.000005    0.000004
  20         3           1      0.000004    0.000003
  21         3           1      0.000004    0.000003
  22         3           1      0.000004    0.000003
  23         3           1      0.000004    0.000003
  24         3           1      0.000003    0.000002
  25         3           1      0.000003    0.000002
  26         3           1      0.000003    0.000002
  27         3           1      0.000002    0.000001
  28         4           0      0.000002    0.000001    Roots Converged
 ---------------------------------------------------
 
 
 ---------------------------------------------------
         TDDFT/TDA Excitation Energies              
 ---------------------------------------------------

 Excited state   1: excitation energy (eV) =    2.1040
    Total energy for state   1:  -2264.390351545389
    Multiplicity: Singlet 
    Trans. Mom.:  2.0093 X   2.3968 Y  -1.5022 Z
    Strength   :  0.6205
    D(170) --> V(  2) amplitude =  0.3548
    D(171) --> V(  1) amplitude =  0.9120

 Excited state   2: excitation energy (eV) =    2.5477
    Total energy for state   2:  -2264.374043661374
    Multiplicity: Singlet 
    Trans. Mom.: -0.7194 X   0.8333 Y   0.8569 Z
    Strength   :  0.1215
    D(170) --> V(  1) amplitude =  0.8459
    D(171) --> V(  2) amplitude = -0.4953

 Excited state   3: excitation energy (eV) =    3.5141
    Total energy for state   3:  -2264.338529548233
    Multiplicity: Singlet 
    Trans. Mom.:  0.0133 X  -0.0039 Y  -0.0663 Z
    Strength   :  0.0004
    D(166) --> V(  1) amplitude =  0.4718
    D(166) --> V(  3) amplitude = -0.3027
    D(166) --> V(  4) amplitude =  0.2537
    D(167) --> V(  1) amplitude =  0.5505
    D(167) --> V(  3) amplitude = -0.3416
    D(167) --> V(  4) amplitude =  0.2873

 Excited state   4: excitation energy (eV) =    3.6053
    Total energy for state   4:  -2264.335177511951
    Multiplicity: Singlet 
    Trans. Mom.: -0.0119 X   0.0429 Y  -0.0110 Z
    Strength   :  0.0002
    D(165) --> V(  1) amplitude =  0.6613
    D(165) --> V(  2) amplitude =  0.2605
    D(165) --> V(  3) amplitude =  0.4835
    D(165) --> V(  4) amplitude =  0.3870
 
 ---------------------------------------------------
 Direct TDDFT calculation will be performed
 Exchange:     0.5400 Hartree-Fock + 1.0000 M062X
 ---------------------------------------------------
 Iter    Rts Conv    Rts Left    Ttl Dev     Max Dev
 ---------------------------------------------------
   1         0           4      0.000026    0.000009
   2         0           4      0.000084    0.000031
   3         0           4      0.000042    0.000017
   4         0           4      0.000019    0.000006
   5         1           3      0.000010    0.000004
   6         1           3      0.000009    0.000004
   7         1           3      0.000008    0.000004
   8         2           2      0.000006    0.000003
   9         2           2      0.000004    0.000001
  10         4           0      0.000003    0.000001    Roots Converged
 ---------------------------------------------------
 
 
 ---------------------------------------------------
             TDDFT Excitation Energies              
 ---------------------------------------------------

 Excited state   1: excitation energy (eV) =    1.7946
    Total energy for state   1:  -2264.401719917766
    Multiplicity: Singlet 
    Trans. Mom.:  1.7451 X   2.0583 Y  -1.3099 Z
    Strength   :  0.3956
    X: D(170) --> V(  2) amplitude =  0.2440
    X: D(171) --> V(  1) amplitude =  0.9755

 Excited state   2: excitation energy (eV) =    2.3728
    Total energy for state   2:  -2264.380472178270
    Multiplicity: Singlet 
    Trans. Mom.: -0.7753 X   0.8451 Y   0.9077 Z
    Strength   :  0.1244
    X: D(170) --> V(  1) amplitude =  0.9147
    X: D(171) --> V(  2) amplitude = -0.3907

 Excited state   3: excitation energy (eV) =    3.4584
    Total energy for state   3:  -2264.340576732772
    Multiplicity: Singlet 
    Trans. Mom.:  0.0594 X  -0.0536 Y  -0.1180 Z
    Strength   :  0.0017
    X: D(166) --> V(  1) amplitude =  0.4596
    X: D(166) --> V(  3) amplitude = -0.3076
    X: D(166) --> V(  4) amplitude =  0.2605
    X: D(167) --> V(  1) amplitude =  0.5438
    X: D(167) --> V(  3) amplitude = -0.3474
    X: D(167) --> V(  4) amplitude =  0.2934

 Excited state   4: excitation energy (eV) =    3.5454
    Total energy for state   4:  -2264.337377689675
    Multiplicity: Singlet 
    Trans. Mom.: -0.1178 X   0.1790 Y   0.1305 Z
    Strength   :  0.0055
    X: D(165) --> V(  1) amplitude =  0.6427
    X: D(165) --> V(  2) amplitude =  0.2618
    X: D(165) --> V(  3) amplitude =  0.4866
    X: D(165) --> V(  4) amplitude =  0.3921
 
 ---------------------------------------------------
  Timing summary (seconds)
  CPU time       1680.17s
  System time       0.00s
  Wall time      2021.60s
 Analysis of SCF Wavefunction
 
 --------------------------------------------------------------
                    Orbital Energies (a.u.)
 --------------------------------------------------------------
 
 Alpha MOs
 -- Occupied --
-47.526 -19.688 -19.679 -19.635 -19.627 -19.626 -19.621 -14.787
-14.783 -14.761 -14.756 -10.687 -10.674 -10.642 -10.640 -10.603
-10.600 -10.600 -10.596 -10.596 -10.591 -10.591 -10.589 -10.586
-10.577 -10.576 -10.575 -10.570 -10.570 -10.569 -10.566 -10.564
-10.563 -10.563 -10.562 -10.561 -10.560 -10.559 -10.557 -10.554
-10.550 -10.549 -10.547 -10.546 -10.546 -10.543 -10.542  -3.292
 -1.988  -1.984  -1.983  -1.229  -1.217  -1.151  -1.150  -1.135
 -1.123  -1.078  -1.069  -1.066  -1.057  -0.947  -0.920  -0.913
 -0.908  -0.899  -0.896  -0.888  -0.875  -0.856  -0.853  -0.839
 -0.831  -0.825  -0.815  -0.804  -0.792  -0.788  -0.779  -0.768
 -0.741  -0.731  -0.717  -0.703  -0.697  -0.685  -0.663  -0.659
 -0.654  -0.652  -0.639  -0.633  -0.609  -0.606  -0.597  -0.592
 -0.586  -0.578  -0.576  -0.566  -0.563  -0.561  -0.556  -0.552
 -0.549  -0.541  -0.536  -0.532  -0.528  -0.524  -0.519  -0.516
 -0.513  -0.506  -0.503  -0.501  -0.499  -0.493  -0.492  -0.492
 -0.487  -0.486  -0.483  -0.482  -0.479  -0.474  -0.470  -0.467
 -0.465  -0.459  -0.457  -0.455  -0.453  -0.451  -0.448  -0.446
 -0.443  -0.440  -0.437  -0.432  -0.431  -0.430  -0.428  -0.426
 -0.422  -0.420  -0.418  -0.415  -0.410  -0.406  -0.403  -0.402
 -0.396  -0.392  -0.384  -0.377  -0.372  -0.366  -0.363  -0.360
 -0.352  -0.344  -0.338  -0.326  -0.317  -0.310  -0.307  -0.300
 -0.295  -0.236  -0.207
 -- Virtual --
 -0.091  -0.021   0.000   0.019   0.031   0.037   0.051   0.054
  0.064   0.081   0.083   0.093   0.095   0.121   0.126   0.130
  0.134   0.135   0.140   0.142   0.144   0.151   0.154   0.159
  0.160   0.160   0.165   0.168   0.172   0.178   0.179   0.188
  0.189   0.190   0.191   0.196   0.198   0.201   0.202   0.204
  0.207   0.208   0.212   0.214   0.215   0.216   0.219   0.221
  0.223   0.225   0.225   0.225   0.233   0.235   0.238   0.240
  0.243   0.245   0.247   0.253   0.259   0.260   0.266   0.268
  0.272   0.275   0.277   0.280   0.285   0.287   0.290   0.293
  0.298   0.305   0.308   0.311   0.317   0.321   0.326   0.328
  0.333   0.341   0.347   0.350   0.359   0.365   0.368   0.376
  0.379   0.384   0.390   0.399   0.406   0.412   0.414   0.424
  0.432   0.444   0.445   0.453   0.461   0.467   0.476   0.490
  0.501   0.505   0.514   0.519   0.521   0.533   0.539   0.541
  0.548   0.553   0.554   0.557   0.558   0.558   0.561   0.565
  0.567   0.572   0.574   0.576   0.582   0.585   0.588   0.591
  0.594   0.594   0.597   0.603   0.606   0.613   0.614   0.620
  0.623   0.626   0.633   0.633   0.638   0.645   0.648   0.650
  0.656   0.661   0.664   0.669   0.672   0.674   0.680   0.680
  0.686   0.690   0.695   0.698   0.700   0.710   0.712   0.713
  0.722   0.724   0.729   0.731   0.737   0.739   0.742   0.747
  0.754   0.759   0.762   0.763   0.772   0.773   0.778   0.782
  0.785   0.789   0.792   0.798   0.801   0.807   0.808   0.813
  0.818   0.822   0.826   0.834   0.836   0.842   0.854   0.860
  0.862   0.864   0.872   0.874   0.877   0.887   0.891   0.893
  0.893   0.897   0.899   0.902   0.909   0.911   0.914   0.915
  0.921   0.923   0.926   0.927   0.934   0.936   0.940   0.941
  0.942   0.945   0.946   0.952   0.954   0.959   0.960   0.962
  0.965   0.968   0.972   0.975   0.979   0.982   0.982   0.988
  0.994   0.995   0.998   1.003   1.008   1.010   1.012   1.015
  1.018   1.021   1.023   1.028   1.031   1.034   1.037   1.042
  1.047   1.052   1.054   1.059   1.060   1.069   1.070   1.071
  1.077   1.083   1.087   1.092   1.092   1.100   1.102   1.105
  1.116   1.118   1.120   1.125   1.130   1.136   1.140   1.147
  1.154   1.161   1.169   1.174   1.178   1.187   1.193   1.196
  1.203   1.204   1.218   1.220   1.233   1.237   1.276   1.280
  1.285   1.286   1.290   1.304   1.309   1.320   1.324   1.331
  1.333   1.339   1.343   1.348   1.354   1.360   1.364   1.368
  1.371   1.389   1.398   1.400   1.406   1.409   1.420   1.436
  1.441   1.443   1.450   1.458   1.461   1.464   1.477   1.482
  1.492   1.497   1.503   1.514   1.519   1.529   1.536   1.539
  1.545   1.557   1.561   1.567   1.574   1.574   1.592   1.593
  1.600   1.606   1.612   1.623   1.628   1.631   1.648   1.651
  1.659   1.669   1.671   1.673   1.683   1.694   1.704   1.713
  1.724   1.725   1.732   1.747   1.750   1.756   1.758   1.761
  1.766   1.770   1.780   1.781   1.785   1.790   1.795   1.806
  1.813   1.814   1.819   1.828   1.833   1.835   1.842   1.845
  1.853   1.858   1.861   1.865   1.867   1.873   1.876   1.882
  1.886   1.887   1.891   1.898   1.907   1.912   1.913   1.915
  1.926   1.928   1.935   1.938   1.941   1.944   1.947   1.949
  1.958   1.966   1.970   1.975   1.979   1.986   1.987   1.995
  2.001   2.008   2.011   2.020   2.027   2.032   2.037   2.043
  2.052   2.057   2.067   2.072   2.079   2.083   2.086   2.089
  2.090   2.094   2.102   2.105   2.112   2.116   2.123   2.131
  2.135   2.139   2.157   2.158   2.166   2.172   2.180   2.190
  2.193   2.197   2.204   2.212   2.213   2.217   2.225   2.230
  2.234   2.236   2.242   2.245   2.255   2.265   2.273   2.278
  2.279   2.288   2.295   2.302   2.306   2.311   2.326   2.332
  2.336   2.340   2.344   2.348   2.354   2.359   2.361   2.362
  2.368   2.370   2.370   2.378   2.383   2.396   2.400   2.401
  2.410   2.413   2.418   2.424   2.432   2.437   2.439   2.443
  2.449   2.457   2.469   2.473   2.484   2.493   2.498   2.507
  2.509   2.519   2.520   2.529   2.534   2.544   2.546   2.555
  2.560   2.586   2.593   2.603   2.614   2.617   2.633   2.640
  2.645   2.651   2.660   2.664   2.676   2.684   2.689   2.702
  2.704   2.713   2.719   2.732   2.739   2.752   2.764   2.767
  2.777   2.782   2.786   2.796   2.808   2.821   2.833   2.837
  2.858   2.867   2.877   2.885   2.906   2.917   2.935   2.941
  2.957   2.974   2.976   2.992   2.999   3.016   3.025   3.028
  3.043   3.057   3.067   3.089   3.126   3.139   3.164   3.178
  3.185   3.205   3.268   3.304   3.332   3.366   3.390   3.431
  4.009   4.019   4.047   4.097   4.139   4.156   4.167   4.180
  4.186   4.188   4.196   4.216   4.224   4.239   4.254   4.263
  4.276   4.291   4.295   4.308   4.339   4.342   4.357   4.360
  4.367   4.385   4.397   4.432   4.446   4.463   4.484   4.513
  4.518   4.551   4.571   4.588   4.634   4.643   4.669   4.728
  4.758   4.765   4.792   4.805   4.876   4.941
 --------------------------------------------------------------
 
          Ground-State Mulliken Net Atomic Charges

     Atom                 Charge (a.u.)
  ----------------------------------------
      1 Mg                    0.854315
      2 C                     0.044771
      3 C                    -0.275302
      4 C                    -0.273115
      5 C                    -0.262596
      6 N                    -0.654361
      7 C                     0.287082
      8 C                    -0.216073
      9 C                    -0.211849
     10 C                     0.347195
     11 C                    -0.471546
     12 C                    -0.305020
     13 C                    -0.375190
     14 C                     0.622225
     15 O                    -0.482146
     16 O                    -0.485999
     17 N                    -0.762991
     18 C                     0.324096
     19 C                     0.006683
     20 C                    -0.070514
     21 C                     0.319723
     22 C                    -0.546936
     23 C                     0.429419
     24 O                    -0.480949
     25 C                    -0.570167
     26 N                    -0.650276
     27 C                     0.348827
     28 C                    -0.211438
     29 C                    -0.207479
     30 C                     0.328529
     31 C                    -0.475796
     32 C                    -0.289753
     33 C                    -0.487557
     34 N                    -0.771774
     35 C                     0.281267
     36 C                     0.022167
     37 C                    -0.028253
     38 C                     0.305925
     39 C                    -0.542435
     40 C                     0.424117
     41 O                    -0.475546
     42 C                    -0.398640
     43 C                     0.685975
     44 O                    -0.496935
     45 O                    -0.482488
     46 C                    -0.242296
     47 C                    -0.255041
     48 H                     0.174284
     49 H                     0.178287
     50 H                     0.179202
     51 H                     0.208138
     52 H                     0.167150
     53 H                     0.179297
     54 H                     0.163474
     55 H                     0.185146
     56 H                     0.182110
     57 H                     0.187079
     58 H                     0.170423
     59 H                     0.176614
     60 H                     0.164253
     61 H                     0.190935
     62 H                     0.179234
     63 H                     0.187545
     64 H                     0.159202
     65 H                     0.163033
     66 H                     0.170305
     67 H                     0.181262
     68 H                     0.181933
     69 H                     0.200707
     70 H                     0.197369
     71 H                     0.178112
     72 H                     0.163198
     73 H                     0.159216
     74 H                     0.188636
     75 H                     0.168001
     76 H                     0.157131
     77 H                     0.213579
     78 H                     0.152293
     79 H                     0.226964
     80 H                     0.166031
     81 H                     0.162701
     82 H                     0.176385
     83 H                     0.192763
     84 H                     0.216242
     85 H                     0.179911
  ----------------------------------------
  Sum of atomic charges =     0.000000

 -----------------------------------------------------------------
                    Cartesian Multipole Moments
 -----------------------------------------------------------------
    Charge (ESU x 10^10)
                 0.0000
    Dipole Moment (Debye)
         X       1.1771      Y       3.1184      Z      -4.1801
       Tot       5.3463
    Quadrupole Moments (Debye-Ang)
        XX    -194.3209     XY     242.4204     YY     502.0359
        XZ       8.9730     YZ    -125.1854     ZZ   -1263.8036
    Octopole Moments (Debye-Ang^2)
       XXX  -25274.8331    XXY  -19734.2717    XYY   32596.0923
       YYY   46679.8665    XXZ  -26080.4225    XYZ   13270.0248
       YYZ    1692.0561    XZZ  -24175.8207    YZZ -106009.0750
       ZZZ -270391.8794
    Hexadecapole Moments (Debye-Ang^3)
      XXXX ************   XXXY ************   XXYY ************
      XYYY 3319593.5396   YYYY  569721.1712   XXXZ ************
      XXYZ ************   XYYZ 2059931.7415   YYYZ ************
      XXZZ ************   XYZZ ************   YYZZ ************
      XZZZ ************   YZZZ ************   ZZZZ ************
 -----------------------------------------------------------------
Archival summary:
1\1\node486\SP\ProcedureUnspecified\6-31G*\g1643638\mssmsg\SatMay2113:14:032016SatMay2113:14:032016\0\\#,ProcedureUnspecified,6-31G*,\\0,1\Mg\N,1,2.02006\C,2,1.34501,1,122.328\C,2,1.38715,1,131.954,3,178.651,0\C,3,1.40652,2,133.385,1,1.80776,0\C,5,1.38638,3,124.715,2,0.268107,0\N,6,1.37222,5,122.013,3,-4.77624,0\C,7,1.36065,6,109.861,5,-173.447,0\C,8,1.38924,7,126.048,6,-176.394,0\H,9,1.08523,8,114.611,7,179.314,0\C,4,1.41053,2,121.6,1,0.459168,0\H,11,1.08712,4,116.641,2,-179.922,0\C,11,1.38982,4,127.162,2,-0.413111,0\N,13,1.36756,11,125.75,4,1.03131,0\C,14,1.35746,13,110.655,11,177.858,0\C,15,1.39168,14,126.066,13,177.744,0\H,16,1.08287,15,116.327,14,-177.874,0\C,16,1.40928,15,129.019,14,2.01432,0\N,18,1.37056,16,124.303,15,0.89195,0\C,19,1.37491,18,107.85,16,178.278,0\C,3,1.41911,2,111.967,1,178.925,0\C,21,1.39418,3,107.016,2,-0.0510533,0\C,20,1.4428,19,109.96,18,-0.169852,0\C,23,1.39873,20,106.425,19,0.289996,0\C,21,1.45995,3,108.292,2,-178.765,0\O,25,1.21947,21,130.508,3,177.982,0\C,24,1.481,23,128.945,20,179.512,0\O,27,1.23146,24,121.679,23,-170.967,0\C,22,1.49839,21,128.396,3,-179.518,0\H,29,1.09326,22,110.429,21,-1.30967,0\H,29,1.09807,22,111.634,21,-121.504,0\H,29,1.09836,22,111.601,21,118.689,0\C,23,1.50296,20,123.967,19,179.028,0\H,33,1.09208,23,111.46,20,0.2767,0\H,33,1.09584,23,112.194,20,120.344,0\H,33,1.09647,23,111.788,20,-119.265,0\C,6,1.52056,5,127.016,3,172.413,0\H,37,1.09504,6,111.557,5,44.0407,0\C,27,1.52222,24,120.145,23,9.68812,0\H,39,1.09208,27,107.937,24,176.06,0\H,39,1.09554,27,111.528,24,-64.2559,0\H,39,1.09611,27,111.532,24,55.8984,0\C,15,1.52591,14,111.596,13,-3.33136,0\H,43,1.09782,15,109.429,14,125.659,0\C,13,1.52681,11,122.967,4,-177.986,0\H,45,1.09961,13,109.612,11,-55.9572,0\C,8,1.52809,7,110.877,6,6.03747,0\H,47,1.09705,8,110.645,7,-135.993,0\C,5,1.5354,3,106.274,2,-179.821,0\H,49,1.09507,5,113.498,3,-122.403,0\C,49,1.52565,5,112.266,3,117.051,0\O,51,1.21578,49,124.807,5,105.889,0\O,51,1.346,49,111.703,5,-72.4616,0\C,53,1.43971,51,116.389,49,-179.901,0\H,54,1.09017,53,105.252,51,178.646,0\H,54,1.09304,53,110.192,51,59.2153,0\H,54,1.09359,53,110.349,51,-61.8133,0\C,43,1.5397,15,112.099,14,-114.278,0\H,58,1.09534,43,111.341,15,-61.7054,0\H,58,1.09689,43,110.487,15,178.197,0\H,58,1.097,43,110.788,15,58.4313,0\C,47,1.54065,8,111.499,7,103.026,0\H,62,1.09569,47,111.24,8,61.6383,0\H,62,1.09635,47,110.288,8,-178.026,0\H,62,1.09674,47,110.794,8,-58.4105,0\C,45,1.54455,13,112.507,11,63.7864,0\H,66,1.09789,45,108.9,13,-51.9548,0\H,66,1.09909,45,109.067,13,63.4436,0\C,66,1.53378,45,113.434,13,-173.48,0\H,69,1.09632,66,110.825,45,179.526,0\H,69,1.09687,66,112.083,45,-60.5186,0\H,69,1.0977,66,110.989,45,59.8568,0\C,37,1.55111,6,110.33,5,-77.4154,0\H,73,1.09547,37,110.21,6,47.682,0\H,73,1.09789,37,108.696,6,-68.7954,0\C,73,1.54379,37,113.687,6,169.566,0\H,76,1.09446,73,111.331,37,48.8288,0\H,76,1.09569,73,108.852,37,168.038,0\C,76,1.51758,73,111.051,37,-74.4067,0\O,79,1.21487,76,123.955,73,-68.9966,0\O,79,1.34955,76,112.377,73,109.783,0\C,81,1.44542,79,115.768,76,-175.565,0\H,82,1.09049,81,105.112,79,-179.04,0\H,82,1.09208,81,109.658,79,61.6374,0\H,82,1.09306,81,110.18,79,-59.691,0\\\@

 Total job time:  2436.04s(wall), 1968.59s(cpu) 
 Sat May 21 13:14:03 2016

        *************************************************************
        *                                                           *
        *  Thank you very much for using Q-Chem.  Have a nice day.  *
        *                                                           *
        *************************************************************


0 sent ACK to 0 
now end server 0 ... 
cleanup process ... done
